<?xml version="1.0" encoding="UTF-8"?>

<!-- generated on 2024-04-12 06:20:32 by Eclipse SUMO sumo Version 1.19.0
<configuration xmlns:xsi="http://www.w3.org/2001/XMLSchema-instance" xsi:noNamespaceSchemaLocation="http://sumo.dlr.de/xsd/sumoConfiguration.xsd">

    <input>
        <net-file value="data/scenario_data/osm.net.xml"/>
        <route-files value="data/scenario_data/osm_pt.rou.xml,data/scenario_data/osm.passenger.trips.xml,data/scenario_data/osm.truck.trips.xml,data/scenario_data/osm.emergency.trips.xml,data/scenario_data/osm.bus.trips.xml,data/scenario_data/osm.motorcycle.trips.xml,data/scenario_data/osm.bicycle.trips.xml,data/scenario_data/osm.pedestrian.rou.xml"/>
        <additional-files value="data/scenario_data/osm.poly.xml,data/scenario_data/osm_stops.add.xml"/>
    </input>

    <output>
        <emission-output value="data/scenario_data/emission.xml"/>
        <summary-output value="data/scenario_data/summary.xml"/>
        <tripinfo-output value="data/scenario_data/tripinfo.xml"/>
    </output>

    <processing>
        <ignore-route-errors value="true"/>
    </processing>

    <routing>
        <device.rerouting.adaptation-steps value="18"/>
        <device.rerouting.adaptation-interval value="10"/>
    </routing>

    <report>
        <verbose value="true"/>
        <no-warnings value="true"/>
        <duration-log.statistics value="true"/>
        <no-step-log value="true"/>
    </report>

    <traci_server>
        <remote-port value="44279"/>
    </traci_server>

    <gui_only>
        <gui-settings-file value="data/scenario_data/osm.view.xml"/>
        <quit-on-end value="true"/>
        <start value="true"/>
        <delay value="0"/>
    </gui_only>

</configuration>
-->

<tripinfos xmlns:xsi="http://www.w3.org/2001/XMLSchema-instance" xsi:noNamespaceSchemaLocation="http://sumo.dlr.de/xsd/tripinfo_file.xsd">
    <tripinfo id="veh1" depart="18.00" departLane="333933989#0_1" departPos="5.10" departSpeed="11.78" departDelay="0.01" arrival="101.00" arrivalLane="4189987_0" arrivalPos="122.94" arrivalSpeed="11.33" duration="83.00" routeLength="895.68" waitingTime="0.00" waitingCount="0" stopTime="0.00" timeLoss="6.76" rerouteNo="1" devices="tripinfo_veh1 routing_veh1 emissions_veh1" vType="veh_passenger" speedFactor="1.06" vaporized="">
        <emissions CO_abs="1935.183666" CO2_abs="180944.042543" HC_abs="12.862286" PMx_abs="2.282611" NOx_abs="67.390495" fuel_abs="57713.391757" electricity_abs="0"/>
    </tripinfo>
    <tripinfo id="bus0" depart="2.00" departLane="333933989#0_0" departPos="12.10" departSpeed="9.40" departDelay="2.00" arrival="117.00" arrivalLane="333934001#1_1" arrivalPos="60.40" arrivalSpeed="10.55" duration="115.00" routeLength="681.22" waitingTime="33.00" waitingCount="2" stopTime="0.00" timeLoss="52.95" rerouteNo="1" devices="tripinfo_bus0 routing_bus0 emissions_bus0" vType="bus_bus" speedFactor="1.00" vaporized="">
        <emissions CO_abs="2450.497460" CO2_abs="1150144.098432" HC_abs="559.520068" PMx_abs="255.259050" NOx_abs="9944.108851" fuel_abs="363888.330620" electricity_abs="0"/>
    </tripinfo>
    <tripinfo id="truck0" depart="0.00" departLane="333933989#0_0" departPos="7.20" departSpeed="10.77" departDelay="0.00" arrival="118.00" arrivalLane="333934001#1_0" arrivalPos="60.40" arrivalSpeed="10.52" duration="118.00" routeLength="686.12" waitingTime="37.00" waitingCount="2" stopTime="0.00" timeLoss="53.12" rerouteNo="1" devices="tripinfo_truck0 routing_truck0 emissions_truck0" vType="truck_truck" speedFactor="0.97" vaporized="">
        <emissions CO_abs="2148.765539" CO2_abs="1336087.891472" HC_abs="0" PMx_abs="280.249888" NOx_abs="12544.935737" fuel_abs="420288.003777" electricity_abs="0"/>
    </tripinfo>
    <tripinfo id="moto2" depart="108.00" departLane="668453151#0_3" departPos="2.30" departSpeed="0.00" departDelay="0.09" arrival="147.00" arrivalLane="668452813_0" arrivalPos="26.56" arrivalSpeed="8.24" duration="39.00" routeLength="341.05" waitingTime="0.00" waitingCount="0" stopTime="0.00" timeLoss="7.04" rerouteNo="1" devices="tripinfo_moto2 routing_moto2 emissions_moto2" vType="moto_motorcycle" speedFactor="0.97" vaporized="">
        <emissions CO_abs="3415.539097" CO2_abs="103942.453880" HC_abs="15.541842" PMx_abs="5.256611" NOx_abs="22.951020" fuel_abs="33156.867147" electricity_abs="0"/>
    </tripinfo>
    <tripinfo id="moto0" depart="0.00" departLane="666660155#0_1" departPos="2.30" departSpeed="0.00" departDelay="0.00" arrival="189.00" arrivalLane="138708547_1" arrivalPos="201.03" arrivalSpeed="17.69" duration="189.00" routeLength="1415.74" waitingTime="66.00" waitingCount="3" stopTime="0.00" timeLoss="90.84" rerouteNo="1" devices="tripinfo_moto0 routing_moto0 emissions_moto0" vType="moto_motorcycle" speedFactor="1.08" vaporized="">
        <emissions CO_abs="27075.170812" CO2_abs="556668.872628" HC_abs="113.507575" PMx_abs="36.022831" NOx_abs="121.892715" fuel_abs="177574.497262" electricity_abs="0"/>
    </tripinfo>
    <tripinfo id="veh3" depart="54.00" departLane="183079037#1_0" departPos="5.10" departSpeed="0.00" departDelay="0.04" arrival="216.00" arrivalLane="333934001#1_0" arrivalPos="60.40" arrivalSpeed="8.47" duration="162.00" routeLength="724.84" waitingTime="73.00" waitingCount="2" stopTime="0.00" timeLoss="88.99" rerouteNo="1" devices="tripinfo_veh3 routing_veh3 emissions_veh3" vType="veh_passenger" speedFactor="0.86" vaporized="">
        <emissions CO_abs="16266.333997" CO2_abs="408295.840943" HC_abs="83.500996" PMx_abs="8.007127" NOx_abs="173.185059" fuel_abs="130232.971100" electricity_abs="0"/>
    </tripinfo>
    <tripinfo id="bike2" depart="27.00" departLane="673071137#0_0" departPos="0.20" departSpeed="0.00" departDelay="0.00" arrival="219.00" arrivalLane="668452812#1_0" arrivalPos="266.85" arrivalSpeed="4.31" duration="192.00" routeLength="552.69" waitingTime="0.00" waitingCount="0" stopTime="0.00" timeLoss="22.13" rerouteNo="1" devices="tripinfo_bike2 routing_bike2 emissions_bike2" vType="bike_bicycle" speedFactor="0.87" vaporized="">
        <emissions CO_abs="0" CO2_abs="0" HC_abs="0" PMx_abs="0" NOx_abs="0" fuel_abs="0" electricity_abs="0"/>
    </tripinfo>
    <tripinfo id="veh4" depart="72.00" departLane="666660154#1_1" departPos="4.44" departSpeed="0.00" departDelay="0.06" arrival="227.00" arrivalLane="61239094_0" arrivalPos="103.61" arrivalSpeed="17.38" duration="155.00" routeLength="2072.10" waitingTime="0.00" waitingCount="0" stopTime="0.00" timeLoss="35.84" rerouteNo="1" devices="tripinfo_veh4 routing_veh4 emissions_veh4" vType="veh_passenger" speedFactor="1.09" vaporized="">
        <emissions CO_abs="6574.029276" CO2_abs="528993.142908" HC_abs="41.322936" PMx_abs="8.946327" NOx_abs="205.418472" fuel_abs="168724.269099" electricity_abs="0"/>
    </tripinfo>
    <tripinfo id="bike6" depart="81.00" departLane="-232866956#1_0" departPos="0.55" departSpeed="0.00" departDelay="0.01" arrival="231.00" arrivalLane="-673071140#1_0" arrivalPos="117.27" arrivalSpeed="3.14" duration="150.00" routeLength="413.02" waitingTime="0.00" waitingCount="0" stopTime="0.00" timeLoss="17.97" rerouteNo="1" devices="tripinfo_bike6 routing_bike6 emissions_bike6" vType="bike_bicycle" speedFactor="1.13" vaporized="">
        <emissions CO_abs="0" CO2_abs="0" HC_abs="0" PMx_abs="0" NOx_abs="0" fuel_abs="0" electricity_abs="0"/>
    </tripinfo>
    <personinfo id="ped9" depart="98.10" type="ped_pedestrian" speedFactor="1.04">
        <walk depart="99.00" departPos="0.00" arrival="246.00" arrivalPos="0.34" duration="147.00" routeLength="191.69" timeLoss="14.73" maxSpeed="1.45"/>
    </personinfo>
    <tripinfo id="truck2" depart="55.00" departLane="307690644#0_0" departPos="7.20" departSpeed="7.31" departDelay="1.04" arrival="246.00" arrivalLane="666660153_1" arrivalPos="102.89" arrivalSpeed="10.48" duration="191.00" routeLength="830.58" waitingTime="80.00" waitingCount="4" stopTime="0.00" timeLoss="113.37" rerouteNo="1" devices="tripinfo_truck2 routing_truck2 emissions_truck2" vType="truck_truck" speedFactor="0.97" vaporized="">
        <emissions CO_abs="3542.724107" CO2_abs="2182092.438048" HC_abs="0" PMx_abs="466.681076" NOx_abs="20829.861759" fuel_abs="686416.639542" electricity_abs="0"/>
    </tripinfo>
    <tripinfo id="moto1" depart="54.00" departLane="333935385#1_1" departPos="2.30" departSpeed="0.00" departDelay="0.04" arrival="265.00" arrivalLane="333934001#1_0" arrivalPos="60.40" arrivalSpeed="9.46" duration="211.00" routeLength="1541.83" waitingTime="75.00" waitingCount="1" stopTime="0.00" timeLoss="96.83" rerouteNo="1" devices="tripinfo_moto1 routing_moto1 emissions_moto1" vType="moto_motorcycle" speedFactor="1.03" vaporized="">
        <emissions CO_abs="27008.929779" CO2_abs="539131.581711" HC_abs="111.803791" PMx_abs="34.781109" NOx_abs="120.128784" fuel_abs="171980.154010" electricity_abs="0"/>
    </tripinfo>
    <tripinfo id="moto3" depart="162.00" departLane="75867438#1_2" departPos="2.30" departSpeed="0.00" departDelay="0.13" arrival="284.00" arrivalLane="232866954#0_2" arrivalPos="161.52" arrivalSpeed="13.65" duration="122.00" routeLength="602.85" waitingTime="67.00" waitingCount="2" stopTime="0.00" timeLoss="78.07" rerouteNo="1" devices="tripinfo_moto3 routing_moto3 emissions_moto3" vType="moto_motorcycle" speedFactor="0.89" vaporized="">
        <emissions CO_abs="18831.654605" CO2_abs="299937.629419" HC_abs="74.877896" PMx_abs="22.314501" NOx_abs="67.772978" fuel_abs="95679.428930" electricity_abs="0"/>
    </tripinfo>
    <personinfo id="ped7" depart="76.30" type="ped_pedestrian" speedFactor="1.09">
        <walk depart="77.00" departPos="0.00" arrival="217.00" arrivalPos="11.57" duration="140.00" routeLength="189.04" timeLoss="15.34" maxSpeed="1.52"/>
        <access stop="5188280103" depart="217.00" arrival="224.00" duration="7.00" routeLength="11.37"/>
        <access stop="5188280103" depart="224.00" arrival="240.00" duration="16.00" routeLength="24.68"/>
        <walk depart="240.00" departPos="36.91" arrival="286.00" arrivalPos="7.68" duration="46.00" routeLength="62.04" timeLoss="5.09" maxSpeed="1.52"/>
    </personinfo>
    <tripinfo id="truck3" depart="81.00" departLane="668485027#2_0" departPos="7.20" departSpeed="0.00" departDelay="0.07" arrival="287.00" arrivalLane="668468055_0" arrivalPos="158.99" arrivalSpeed="10.59" duration="206.00" routeLength="1399.36" waitingTime="46.00" waitingCount="3" stopTime="0.00" timeLoss="75.74" rerouteNo="1" devices="tripinfo_truck3 routing_truck3 emissions_truck3" vType="truck_truck" speedFactor="0.97" vaporized="">
        <emissions CO_abs="3917.237157" CO2_abs="2489829.411450" HC_abs="0" PMx_abs="504.647927" NOx_abs="22944.023590" fuel_abs="783215.563140" electricity_abs="0"/>
    </tripinfo>
    <tripinfo id="bike3" depart="41.00" departLane="775633665#1_0" departPos="1.70" departSpeed="0.00" departDelay="0.50" arrival="289.00" arrivalLane="-432521766#1_0" arrivalPos="22.09" arrivalSpeed="1.99" duration="248.00" routeLength="771.77" waitingTime="3.00" waitingCount="1" stopTime="0.00" timeLoss="28.65" rerouteNo="1" devices="tripinfo_bike3 routing_bike3 emissions_bike3" vType="bike_bicycle" speedFactor="0.92" vaporized="">
        <emissions CO_abs="0" CO2_abs="0" HC_abs="0" PMx_abs="0" NOx_abs="0" fuel_abs="0" electricity_abs="0"/>
    </tripinfo>
    <tripinfo id="bike0" depart="0.00" departLane="49478489#0_1" departPos="1.70" departSpeed="0.00" departDelay="0.00" arrival="294.00" arrivalLane="-232866956#0_0" arrivalPos="48.66" arrivalSpeed="1.85" duration="294.00" routeLength="775.21" waitingTime="78.00" waitingCount="2" stopTime="0.00" timeLoss="103.81" rerouteNo="1" devices="tripinfo_bike0 routing_bike0 emissions_bike0" vType="bike_bicycle" speedFactor="0.83" vaporized="">
        <emissions CO_abs="0" CO2_abs="0" HC_abs="0" PMx_abs="0" NOx_abs="0" fuel_abs="0" electricity_abs="0"/>
    </tripinfo>
    <tripinfo id="bike11" depart="149.00" departLane="-768639719_0" departPos="1.70" departSpeed="0.00" departDelay="0.52" arrival="295.00" arrivalLane="-668452809_0" arrivalPos="97.09" arrivalSpeed="5.14" duration="146.00" routeLength="368.45" waitingTime="37.00" waitingCount="1" stopTime="0.00" timeLoss="52.57" rerouteNo="1" devices="tripinfo_bike11 routing_bike11 emissions_bike11" vType="bike_bicycle" speedFactor="1.01" vaporized="">
        <emissions CO_abs="0" CO2_abs="0" HC_abs="0" PMx_abs="0" NOx_abs="0" fuel_abs="0" electricity_abs="0"/>
    </tripinfo>
    <personinfo id="ped13" depart="141.71" type="ped_pedestrian" speedFactor="0.88">
        <walk depart="142.00" departPos="0.00" arrival="304.00" arrivalPos="2.80" duration="162.00" routeLength="176.71" timeLoss="16.91" maxSpeed="1.22"/>
    </personinfo>
    <tripinfo id="veh6" depart="108.00" departLane="668485023#0_0" departPos="4.55" departSpeed="0.00" departDelay="0.09" arrival="304.00" arrivalLane="668452813_0" arrivalPos="26.56" arrivalSpeed="11.48" duration="196.00" routeLength="990.60" waitingTime="101.00" waitingCount="3" stopTime="0.00" timeLoss="124.65" rerouteNo="1" devices="tripinfo_veh6 routing_veh6 emissions_veh6" vType="veh_passenger" speedFactor="1.05" vaporized="">
        <emissions CO_abs="21762.984495" CO2_abs="576894.323942" HC_abs="112.138883" PMx_abs="11.902790" NOx_abs="245.552913" fuel_abs="184009.009969" electricity_abs="0"/>
    </tripinfo>
    <personinfo id="ped12" depart="130.81" type="ped_pedestrian" speedFactor="0.90">
        <walk depart="131.00" departPos="0.00" arrival="320.00" arrivalPos="19.59" duration="189.00" routeLength="212.65" timeLoss="18.98" maxSpeed="1.25"/>
    </personinfo>
    <tripinfo id="bike9" depart="122.00" departLane="700995755_0" departPos="1.70" departSpeed="0.00" departDelay="0.51" arrival="325.00" arrivalLane="-232152854#0_0" arrivalPos="190.01" arrivalSpeed="2.75" duration="203.00" routeLength="656.10" waitingTime="19.00" waitingCount="1" stopTime="0.00" timeLoss="39.38" rerouteNo="1" devices="tripinfo_bike9 routing_bike9 emissions_bike9" vType="bike_bicycle" speedFactor="1.18" vaporized="">
        <emissions CO_abs="0" CO2_abs="0" HC_abs="0" PMx_abs="0" NOx_abs="0" fuel_abs="0" electricity_abs="0"/>
    </tripinfo>
    <tripinfo id="truck1" depart="27.00" departLane="307690644#0_0" departPos="7.20" departSpeed="11.17" departDelay="0.02" arrival="337.00" arrivalLane="61239093_0" arrivalPos="34.28" arrivalSpeed="16.59" duration="310.00" routeLength="1304.03" waitingTime="155.00" waitingCount="5" stopTime="0.00" timeLoss="204.00" rerouteNo="1" devices="tripinfo_truck1 routing_truck1 emissions_truck1" vType="truck_truck" speedFactor="1.01" vaporized="">
        <emissions CO_abs="5720.540987" CO2_abs="3475756.315568" HC_abs="0" PMx_abs="758.033828" NOx_abs="33486.846279" fuel_abs="1093360.585516" electricity_abs="0"/>
    </tripinfo>
    <personinfo id="ped14" depart="152.61" type="ped_pedestrian" speedFactor="0.85">
        <walk depart="153.00" departPos="0.00" arrival="345.00" arrivalPos="0.10" duration="192.00" routeLength="150.66" timeLoss="64.44" maxSpeed="1.18"/>
    </personinfo>
    <tripinfo id="bus3" depart="162.00" departLane="668485027#2_0" departPos="12.10" departSpeed="0.00" departDelay="0.13" arrival="351.00" arrivalLane="668468055_0" arrivalPos="158.99" arrivalSpeed="10.96" duration="189.00" routeLength="1394.46" waitingTime="30.00" waitingCount="3" stopTime="0.00" timeLoss="62.68" rerouteNo="1" devices="tripinfo_bus3 routing_bus3 emissions_bus3" vType="bus_bus" speedFactor="1.00" vaporized="">
        <emissions CO_abs="4182.983526" CO2_abs="2120125.879105" HC_abs="953.771907" PMx_abs="439.789755" NOx_abs="17756.297093" fuel_abs="670832.257838" electricity_abs="0"/>
    </tripinfo>
    <tripinfo id="bike4" depart="54.00" departLane="-775633688#4_0" departPos="1.70" departSpeed="0.00" departDelay="0.01" arrival="375.00" arrivalLane="-232866961#1_0" arrivalPos="24.90" arrivalSpeed="2.37" duration="321.00" routeLength="947.90" waitingTime="38.00" waitingCount="4" stopTime="0.00" timeLoss="76.21" rerouteNo="1" devices="tripinfo_bike4 routing_bike4 emissions_bike4" vType="bike_bicycle" speedFactor="0.95" vaporized="">
        <emissions CO_abs="0" CO2_abs="0" HC_abs="0" PMx_abs="0" NOx_abs="0" fuel_abs="0" electricity_abs="0"/>
    </tripinfo>
    <tripinfo id="bike12" depart="162.00" departLane="777424812_0" departPos="1.70" departSpeed="0.00" departDelay="0.02" arrival="375.00" arrivalLane="-75867438#1_0" arrivalPos="25.59" arrivalSpeed="6.00" duration="213.00" routeLength="856.86" waitingTime="41.00" waitingCount="1" stopTime="0.00" timeLoss="58.80" rerouteNo="1" devices="tripinfo_bike12 routing_bike12 emissions_bike12" vType="bike_bicycle" speedFactor="1.17" vaporized="">
        <emissions CO_abs="0" CO2_abs="0" HC_abs="0" PMx_abs="0" NOx_abs="0" fuel_abs="0" electricity_abs="0"/>
    </tripinfo>
    <tripinfo id="truck10" depart="270.00" departLane="307292432_0" departPos="7.20" departSpeed="0.00" departDelay="0.22" arrival="377.00" arrivalLane="489467547#1_2" arrivalPos="93.95" arrivalSpeed="11.16" duration="107.00" routeLength="1338.05" waitingTime="0.00" waitingCount="0" stopTime="0.00" timeLoss="19.61" rerouteNo="1" devices="tripinfo_truck10 routing_truck10 emissions_truck10" vType="truck_truck" speedFactor="1.01" vaporized="">
        <emissions CO_abs="2801.480648" CO2_abs="2044100.321348" HC_abs="0" PMx_abs="334.327364" NOx_abs="17074.274759" fuel_abs="643009.285426" electricity_abs="0"/>
    </tripinfo>
    <tripinfo id="truck4" depart="108.00" departLane="673118336#1_2" departPos="7.20" departSpeed="0.00" departDelay="0.09" arrival="378.00" arrivalLane="666660155#0_0" arrivalPos="13.23" arrivalSpeed="11.96" duration="270.00" routeLength="2114.34" waitingTime="66.00" waitingCount="1" stopTime="0.00" timeLoss="92.35" rerouteNo="1" devices="tripinfo_truck4 routing_truck4 emissions_truck4" vType="truck_truck" speedFactor="1.08" vaporized="">
        <emissions CO_abs="5121.888498" CO2_abs="3291789.380522" HC_abs="0" PMx_abs="654.320378" NOx_abs="29945.273583" fuel_abs="1035482.135391" electricity_abs="0"/>
    </tripinfo>
    <tripinfo id="bus1" depart="54.00" departLane="307690644#0_0" departPos="12.10" departSpeed="11.11" departDelay="0.04" arrival="387.00" arrivalLane="61239093_0" arrivalPos="34.28" arrivalSpeed="16.32" duration="333.00" routeLength="1299.13" waitingTime="178.00" waitingCount="6" stopTime="0.00" timeLoss="227.65" rerouteNo="1" devices="tripinfo_bus1 routing_bus1 emissions_bus1" vType="bus_bus" speedFactor="1.00" vaporized="">
        <emissions CO_abs="7243.910268" CO2_abs="2992252.074533" HC_abs="1662.945053" PMx_abs="744.360131" NOx_abs="27356.787257" fuel_abs="946561.745582" electricity_abs="0"/>
    </tripinfo>
    <tripinfo id="bike1" depart="14.00" departLane="-700995755_0" departPos="1.70" departSpeed="0.00" departDelay="0.50" arrival="392.00" arrivalLane="-673253659#0_0" arrivalPos="129.65" arrivalSpeed="2.86" duration="378.00" routeLength="1283.95" waitingTime="66.00" waitingCount="3" stopTime="0.00" timeLoss="100.38" rerouteNo="1" devices="tripinfo_bike1 routing_bike1 emissions_bike1" vType="bike_bicycle" speedFactor="1.05" vaporized="">
        <emissions CO_abs="0" CO2_abs="0" HC_abs="0" PMx_abs="0" NOx_abs="0" fuel_abs="0" electricity_abs="0"/>
    </tripinfo>
    <tripinfo id="bike10" depart="135.00" departLane="700995753#3_0" departPos="1.70" departSpeed="0.00" departDelay="0.02" arrival="399.00" arrivalLane="672435861#0_0" arrivalPos="0.20" arrivalSpeed="2.62" duration="264.00" routeLength="367.64" waitingTime="140.00" waitingCount="4" stopTime="0.00" timeLoss="178.69" rerouteNo="1" devices="tripinfo_bike10 routing_bike10 emissions_bike10" vType="bike_bicycle" speedFactor="1.15" vaporized="">
        <emissions CO_abs="0" CO2_abs="0" HC_abs="0" PMx_abs="0" NOx_abs="0" fuel_abs="0" electricity_abs="0"/>
    </tripinfo>
    <tripinfo id="veh14" depart="252.00" departLane="232866966#0_0" departPos="5.10" departSpeed="0.00" departDelay="0.21" arrival="410.00" arrivalLane="4189987_0" arrivalPos="122.94" arrivalSpeed="10.39" duration="158.00" routeLength="934.61" waitingTime="55.00" waitingCount="1" stopTime="0.00" timeLoss="75.57" rerouteNo="1" devices="tripinfo_veh14 routing_veh14 emissions_veh14" vType="veh_passenger" speedFactor="1.00" vaporized="">
        <emissions CO_abs="12911.370472" CO2_abs="373107.440684" HC_abs="67.421523" PMx_abs="7.017953" NOx_abs="155.633636" fuel_abs="119008.184032" electricity_abs="0"/>
    </tripinfo>
    <tripinfo id="bus2" depart="108.00" departLane="307690644#0_0" departPos="12.10" departSpeed="11.11" departDelay="0.09" arrival="411.00" arrivalLane="666660153_1" arrivalPos="102.89" arrivalSpeed="10.84" duration="303.00" routeLength="825.68" waitingTime="176.00" waitingCount="5" stopTime="0.00" timeLoss="227.43" rerouteNo="1" devices="tripinfo_bus2 routing_bus2 emissions_bus2" vType="bus_bus" speedFactor="1.00" vaporized="">
        <emissions CO_abs="6217.586511" CO2_abs="2327516.423734" HC_abs="1440.755072" PMx_abs="633.390801" NOx_abs="22266.491783" fuel_abs="736192.033763" electricity_abs="0"/>
    </tripinfo>
    <tripinfo id="bike17" depart="230.00" departLane="-775633678#2_0" departPos="1.70" departSpeed="0.00" departDelay="0.53" arrival="424.00" arrivalLane="341460011#1_0" arrivalPos="112.05" arrivalSpeed="2.44" duration="194.00" routeLength="497.86" waitingTime="0.00" waitingCount="0" stopTime="0.00" timeLoss="21.30" rerouteNo="1" devices="tripinfo_bike17 routing_bike17 emissions_bike17" vType="bike_bicycle" speedFactor="1.04" vaporized="">
        <emissions CO_abs="0" CO2_abs="0" HC_abs="0" PMx_abs="0" NOx_abs="0" fuel_abs="0" electricity_abs="0"/>
    </tripinfo>
    <tripinfo id="veh8" depart="144.00" departLane="668485040_2" departPos="5.10" departSpeed="0.00" departDelay="0.12" arrival="461.00" arrivalLane="666660153_1" arrivalPos="102.89" arrivalSpeed="11.35" duration="317.00" routeLength="1444.51" waitingTime="157.00" waitingCount="7" stopTime="0.00" timeLoss="201.07" rerouteNo="1" devices="tripinfo_veh8 routing_veh8 emissions_veh8" vType="veh_passenger" speedFactor="1.12" vaporized="">
        <emissions CO_abs="34160.575269" CO2_abs="852861.421798" HC_abs="175.280026" PMx_abs="17.832489" NOx_abs="367.174146" fuel_abs="272033.790677" electricity_abs="0"/>
    </tripinfo>
    <personinfo id="ped2" depart="21.80" type="ped_pedestrian" speedFactor="0.94">
        <walk depart="22.00" departPos="0.00" arrival="463.00" arrivalPos="0.10" duration="441.00" routeLength="515.18" timeLoss="45.51" maxSpeed="1.30"/>
    </personinfo>
    <tripinfo id="bike19" depart="257.00" departLane="753613763#0_0" departPos="1.70" departSpeed="0.00" departDelay="0.53" arrival="466.00" arrivalLane="432521766#3_0" arrivalPos="212.19" arrivalSpeed="2.58" duration="209.00" routeLength="651.54" waitingTime="0.00" waitingCount="0" stopTime="0.00" timeLoss="21.08" rerouteNo="1" devices="tripinfo_bike19 routing_bike19 emissions_bike19" vType="bike_bicycle" speedFactor="1.02" vaporized="">
        <emissions CO_abs="0" CO2_abs="0" HC_abs="0" PMx_abs="0" NOx_abs="0" fuel_abs="0" electricity_abs="0"/>
    </tripinfo>
    <tripinfo id="bike16" depart="216.00" departLane="307690644#0_2" departPos="1.70" departSpeed="6.55" departDelay="0.03" arrival="479.00" arrivalLane="781757773#1_0" arrivalPos="8.71" arrivalSpeed="3.15" duration="263.00" routeLength="472.65" waitingTime="115.00" waitingCount="2" stopTime="0.00" timeLoss="141.27" rerouteNo="1" devices="tripinfo_bike16 routing_bike16 emissions_bike16" vType="bike_bicycle" speedFactor="1.18" vaporized="">
        <emissions CO_abs="0" CO2_abs="0" HC_abs="0" PMx_abs="0" NOx_abs="0" fuel_abs="0" electricity_abs="0"/>
    </tripinfo>
    <tripinfo id="bike24" depart="324.00" departLane="489467557#1_2" departPos="1.70" departSpeed="0.00" departDelay="0.04" arrival="482.00" arrivalLane="-775633668#0_0" arrivalPos="28.82" arrivalSpeed="2.60" duration="158.00" routeLength="440.72" waitingTime="30.00" waitingCount="1" stopTime="0.00" timeLoss="46.05" rerouteNo="1" devices="tripinfo_bike24 routing_bike24 emissions_bike24" vType="bike_bicycle" speedFactor="0.96" vaporized="">
        <emissions CO_abs="0" CO2_abs="0" HC_abs="0" PMx_abs="0" NOx_abs="0" fuel_abs="0" electricity_abs="0"/>
    </tripinfo>
    <tripinfo id="truck11" depart="297.00" departLane="994397868_1" departPos="7.20" departSpeed="0.00" departDelay="0.24" arrival="500.00" arrivalLane="668452809_0" arrivalPos="95.88" arrivalSpeed="11.36" duration="203.00" routeLength="1291.18" waitingTime="40.00" waitingCount="5" stopTime="0.00" timeLoss="92.70" rerouteNo="1" devices="tripinfo_truck11 routing_truck11 emissions_truck11" vType="truck_truck" speedFactor="1.06" vaporized="">
        <emissions CO_abs="4054.446118" CO2_abs="2666673.607435" HC_abs="0" PMx_abs="516.320353" NOx_abs="24213.051524" fuel_abs="838851.967203" electricity_abs="0"/>
    </tripinfo>
    <tripinfo id="veh16" depart="288.00" departLane="666660153_1" departPos="5.10" departSpeed="0.00" departDelay="0.24" arrival="515.00" arrivalLane="489467547#1_2" arrivalPos="93.95" arrivalSpeed="9.59" duration="227.00" routeLength="1663.66" waitingTime="76.00" waitingCount="2" stopTime="0.00" timeLoss="101.73" rerouteNo="1" devices="tripinfo_veh16 routing_veh16 emissions_veh16" vType="veh_passenger" speedFactor="0.90" vaporized="">
        <emissions CO_abs="18640.873579" CO2_abs="629548.429154" HC_abs="99.158403" PMx_abs="11.705652" NOx_abs="259.202444" fuel_abs="200802.123839" electricity_abs="0"/>
    </tripinfo>
    <personinfo id="ped16" depart="174.41" type="ped_pedestrian" speedFactor="0.85">
        <walk depart="175.00" departPos="0.00" arrival="518.00" arrivalPos="149.10" duration="343.00" routeLength="331.59" timeLoss="63.73" maxSpeed="1.19"/>
    </personinfo>
    <tripinfo id="veh10" depart="180.00" departLane="668485027#2_0" departPos="5.10" departSpeed="0.00" departDelay="0.15" arrival="519.00" arrivalLane="666660154#1_1" arrivalPos="4.44" arrivalSpeed="10.98" duration="339.00" routeLength="2112.56" waitingTime="96.00" waitingCount="7" stopTime="0.00" timeLoss="145.82" rerouteNo="1" devices="tripinfo_veh10 routing_veh10 emissions_veh10" vType="veh_passenger" speedFactor="0.99" vaporized="">
        <emissions CO_abs="25889.970339" CO2_abs="834007.627233" HC_abs="137.160349" PMx_abs="15.151161" NOx_abs="344.996875" fuel_abs="266017.847296" electricity_abs="0"/>
    </tripinfo>
    <tripinfo id="truck16" depart="432.00" departLane="333933989#0_1" departPos="7.20" departSpeed="10.76" departDelay="0.35" arrival="520.00" arrivalLane="4189987_0" arrivalPos="122.94" arrivalSpeed="10.37" duration="88.00" routeLength="893.58" waitingTime="0.00" waitingCount="0" stopTime="0.00" timeLoss="4.97" rerouteNo="1" devices="tripinfo_truck16 routing_truck16 emissions_truck16" vType="truck_truck" speedFactor="0.97" vaporized="">
        <emissions CO_abs="1654.876105" CO2_abs="1098491.408692" HC_abs="0" PMx_abs="206.455342" NOx_abs="9650.903534" fuel_abs="345545.144422" electricity_abs="0"/>
    </tripinfo>
    <personinfo id="ped0" depart="0.00" type="ped_pedestrian" speedFactor="0.89">
        <walk depart="0.00" departPos="0.00" arrival="524.00" arrivalPos="47.98" duration="524.00" routeLength="580.21" timeLoss="52.50" maxSpeed="1.23"/>
    </personinfo>
    <tripinfo id="moto4" depart="216.00" departLane="488680655#1_0" departPos="2.30" departSpeed="0.00" departDelay="0.18" arrival="527.00" arrivalLane="138708547_0" arrivalPos="201.03" arrivalSpeed="12.17" duration="311.00" routeLength="2214.95" waitingTime="45.00" waitingCount="4" stopTime="0.00" timeLoss="95.48" rerouteNo="1" devices="tripinfo_moto4 routing_moto4 emissions_moto4" vType="moto_motorcycle" speedFactor="0.83" vaporized="">
        <emissions CO_abs="29685.977327" CO2_abs="690684.552180" HC_abs="125.723704" PMx_abs="39.625500" NOx_abs="155.769646" fuel_abs="220324.321359" electricity_abs="0"/>
    </tripinfo>
    <personinfo id="ped11" depart="119.91" type="ped_pedestrian" speedFactor="1.00">
        <walk depart="120.00" departPos="0.00" arrival="531.00" arrivalPos="22.96" duration="411.00" routeLength="509.97" timeLoss="42.86" maxSpeed="1.39"/>
    </personinfo>
    <personinfo id="ped18" depart="196.21" type="ped_pedestrian" speedFactor="1.02">
        <walk depart="197.00" departPos="0.00" arrival="552.00" arrivalPos="42.26" duration="355.00" routeLength="432.73" timeLoss="48.58" maxSpeed="1.41"/>
    </personinfo>
    <personinfo id="ped5" depart="54.50" type="ped_pedestrian" speedFactor="1.03">
        <walk depart="55.00" departPos="0.00" arrival="554.00" arrivalPos="43.14" duration="499.00" routeLength="640.67" timeLoss="51.33" maxSpeed="1.43"/>
    </personinfo>
    <tripinfo id="veh23" depart="414.00" departLane="307690644#0_2" departPos="5.10" departSpeed="10.77" departDelay="0.34" arrival="555.00" arrivalLane="979435613_1" arrivalPos="128.08" arrivalSpeed="9.75" duration="141.00" routeLength="1254.03" waitingTime="31.00" waitingCount="2" stopTime="0.00" timeLoss="50.55" rerouteNo="1" devices="tripinfo_veh23 routing_veh23 emissions_veh23" vType="veh_passenger" speedFactor="0.97" vaporized="">
        <emissions CO_abs="9937.544422" CO2_abs="425497.555866" HC_abs="54.738585" PMx_abs="7.813513" NOx_abs="173.955041" fuel_abs="135716.015352" electricity_abs="0"/>
    </tripinfo>
    <tripinfo id="bike34" depart="459.00" departLane="-713194424#1_0" departPos="1.70" departSpeed="0.00" departDelay="0.06" arrival="572.00" arrivalLane="-700995753#2_0" arrivalPos="21.63" arrivalSpeed="2.29" duration="113.00" routeLength="317.31" waitingTime="7.00" waitingCount="1" stopTime="0.00" timeLoss="20.87" rerouteNo="1" devices="tripinfo_bike34 routing_bike34 emissions_bike34" vType="bike_bicycle" speedFactor="0.87" vaporized="">
        <emissions CO_abs="0" CO2_abs="0" HC_abs="0" PMx_abs="0" NOx_abs="0" fuel_abs="0" electricity_abs="0"/>
    </tripinfo>
    <personinfo id="ped45" depart="490.52" type="ped_pedestrian" speedFactor="1.03">